16
Lattice="15.0 9.18485099360515e-16 0.0 0.0 10.0 0.0 0.0 0.0 10.0" Properties=species:S:1:pos:R:3:forces:R:3:magmoms:R:1 energy=-94.94011027854225 dipole="-0.00018665684297226672 0.0002121772661567634 6.352177365641739e-14" magmom=0.0 free_energy=-94.94011027854225 pbc="F F F"
C        5.56443584       4.91423554       5.00000000       0.00206622      -0.00196869      -0.00000000       0.00000000
O        6.22449171       3.86480725       5.00000000      -0.00235862      -0.00474123       0.00000000       0.00000000
O        6.09434231       6.12577211       5.00000000       0.00079703       0.00447071      -0.00000000       0.00000000
H        7.12115923       6.06502831       5.00000000       0.00029163      -0.00120683      -0.00000000       0.00000000
C        4.06025646       4.91548097       5.00000000      -0.00210905       0.00227249       0.00000000       0.00000000
H        3.68132376       3.88948239       5.00000000      -0.00099227      -0.00073169      -0.00000000       0.00000000
H        3.69113621       5.45527464       5.88318896       0.00075154      -0.00076741       0.00063554       0.00000000
H        3.69113621       5.45527464       4.11681104       0.00075154      -0.00076741      -0.00063554       0.00000000
C        9.36468216       4.99500876       5.00000000      -0.00216705       0.00209848      -0.00000000       0.00000000
O        8.70462629       6.04443706       5.00000000       0.00117345       0.00280528       0.00000000       0.00000000
O        8.83477569       3.78347219       5.00000000      -0.00254213      -0.00168466      -0.00000000       0.00000000
H        7.80795878       3.84421600       5.00000000      -0.00019829       0.00117144       0.00000000       0.00000000
C       10.86886154       4.99376334       5.00000000       0.00221785      -0.00207666       0.00000000       0.00000000
H       11.24779425       6.01976191       5.00000000       0.00108374       0.00076849      -0.00000000       0.00000000
H       11.23798180       4.45396966       5.88318896      -0.00074421       0.00078677       0.00063484       0.00000000
H       11.23798180       4.45396966       4.11681104      -0.00074421       0.00078677      -0.00063484       0.00000000
