9
Lattice="12.459218596929215 7.629071087303269e-16 0.0 0.0 11.833282004251496 0.0 7.946956904161999e-16 7.946956904161996e-16 12.978365533139804" Properties=species:S:1:pos:R:3:forces:R:3:magmoms:R:1 XYZ=T file=T generated=T by=T Avogadro.=T energy=-47.034532246531654 dipole="-0.21130989090947502 0.24339513785015618 -0.12802986762105742" magmom=0.0 free_energy=-47.03453861274281 pbc="F F F"
C        5.45069076       5.95272610       6.04026473       0.00195570       0.00176574      -0.00363080       0.00000000
C        6.96952827       5.88607994       6.11524045       0.00234901      -0.00175086      -0.00326592       0.00000000
H        5.06662040       6.83967575       6.56842417      -0.00314764       0.00086465       0.00253872       0.00000000
H        5.11613746       6.02020086       4.99381197      -0.00064827       0.00002507      -0.00098863       0.00000000
H        4.99801138       5.05985616       6.49348832      -0.00154417      -0.00330284       0.00049259       0.00000000
H        7.41687518       6.77746913       5.63592682       0.00166081      -0.00153840       0.00028942       0.00000000
O        7.46074638       5.73410385       7.45296379      -0.00497250       0.00021479      -0.00019053       0.00000000
H        7.34345657       5.00455967       5.57379158      -0.00285486       0.00347747       0.00056926       0.00000000
H        7.15448741       6.49896490       7.96967572       0.00120277       0.00150691      -0.00143036       0.00000000
