4
Lattice="13.350183963855656 0.0 0.0 0.0 10.000021607607525 0.0 0.0 0.0 10.000021607607527" Properties=species:S:1:pos:R:3:forces:R:3:magmoms:R:1 energy=-22.919902299453206 dipole="2.889394820522128e-14 1.0318090306168523e-14 -4.179617501025224e-08" magmom=0.0 free_energy=-22.919903171341364 pbc="F F F"
C        6.07139382       5.00001080       5.00003241      -0.00293008       0.00000000      -0.00000010       0.00000000
C        7.27879014       5.00001080       5.00003241       0.00293008       0.00000000      -0.00000010       0.00000000
H        5.00000000       5.00001080       5.00003241       0.00267387       0.00000000       0.00000001       0.00000000
H        8.35018396       5.00001080       5.00003241      -0.00267387       0.00000000       0.00000001       0.00000000
