7
Lattice="12.948212397803356 7.92849343382498e-16 0.0 0.0 12.754857967203522 0.0 0.0 0.0 11.761821153638223" Properties=species:S:1:pos:R:3:forces:R:3:magmoms:R:1 energy=-39.307143362270565 dipole="-0.5403197739746248 -0.22565542319028886 5.569623256516285e-16" magmom=0.0 free_energy=-39.307400417057146 pbc="F F F"
O        7.94821240       6.80115277       5.88091058      -0.00287908       0.00211418       0.00000000       0.00000000
C        5.54036146       6.65873481       5.88091058       0.00255733       0.00010026       0.00000000       0.00000000
C        6.94238401       6.11981555       5.88091058      -0.00146977       0.00287271       0.00000000       0.00000000
H        5.00000000       6.27536952       6.76182115       0.00066437      -0.00146031       0.00102124       0.00000000
H        5.53625713       7.75485797       5.88091058      -0.00249962       0.00126986       0.00000000       0.00000000
H        5.00000000       6.27536952       5.00000000       0.00066437      -0.00146031      -0.00102124       0.00000000
H        7.01978687       5.00000000       5.88091058      -0.00309407      -0.00071187       0.00000000       0.00000000
