6
Lattice="12.481212342699635 -2.7369110631344083e-47 0.0 0.0 9.999999999999998 0.0 0.0 0.0 11.857791718681337" Properties=species:S:1:pos:R:3:forces:R:3:magmoms:R:1 energy=-31.951989698331438 dipole="9.704890428016904e-15 -9.020916495015798e-15 1.5064186897190997e-14" magmom=0.0 free_energy=-31.951994057245763 pbc="F F F"
C        5.57405900       5.00000000       5.92889586      -0.00416714       0.00000000       0.00000000       0.00000000
C        6.90715334       5.00000000       5.92889586       0.00416714       0.00000000       0.00000000       0.00000000
H        5.00000000       5.00000000       6.85779172       0.00029140       0.00000000       0.00094235       0.00000000
H        5.00000000       5.00000000       5.00000000       0.00029140       0.00000000      -0.00094235       0.00000000
H        7.48121234       5.00000000       6.85779172      -0.00029140       0.00000000       0.00094235       0.00000000
H        7.48121234       5.00000000       5.00000000      -0.00029140       0.00000000      -0.00094235       0.00000000
