8
Lattice="13.338322429745897 8.16736693479183e-16 8.16736693479183e-16 0.0 12.47628624925755 7.639522010199698e-16 0.0 0.0 11.751920607720816" Properties=species:S:1:pos:R:3:forces:R:3:magmoms:R:1 energy=-47.104194110574724 dipole="-0.2373524631673254 -0.2724405305060368 -0.052975651375891025" magmom=0.0 free_energy=-47.104204565667324 pbc="F F F"
O        7.75352387       7.20365868       6.21538586       0.00093376       0.00205804       0.00057598       0.00000000
C        5.46678208       6.42656713       5.95977034      -0.00228294       0.00010407      -0.00288280       0.00000000
C        6.96410179       6.29832925       6.03436481       0.00025761       0.00258197       0.00048843       0.00000000
H        5.00000000       5.82445553       6.75192061       0.00054890       0.00016226       0.00001809       0.00000000
H        5.18103700       7.47628625       6.07084886      -0.00001844       0.00177600       0.00039859       0.00000000
H        5.10213553       6.03486627       5.00000000       0.00118689       0.00186890       0.00230875       0.00000000
O        7.36086964       5.00000000       5.87192655       0.00040915      -0.00164062      -0.00013090       0.00000000
H        8.33832243       5.01034335       5.93739143      -0.00051265       0.00316502      -0.00027301       0.00000000
